<?xml version="1.0"?>
<VTKFile type="UnstructuredGrid"  version="0.1"  >
<UnstructuredGrid>
<Piece  NumberOfPoints="4225" NumberOfCells="4096">
<Points>
<DataArray  type="Float64"  NumberOfComponents="3"  format="ascii">0 0 0  0.015625 0 0  0.03125 0 0  0.046875 0 0  0.0625 0 0  0.078125 0 0  0.09375 0 0  0.109375 0 0  0.125 0 0  0.140625 0 0  0.15625 0 0  0.171875 0 0  0.1875 0 0  0.203125 0 0  0.21875 0 0  0.234375 0 0  0.25 0 0  0.265625 0 0  0.28125 0 0  0.296875 0 0  0.3125 0 0  0.328125 0 0  0.34375 0 0  0.359375 0 0  0.375 0 0  0.390625 0 0  0.40625 0 0  0.421875 0 0  0.4375 0 0  0.453125 0 0  0.46875 0 0  0.484375 0 0  0.5 0 0  0.515625 0 0  0.53125 0 0  0.546875 0 0  0.5625 0 0  0.578125 0 0  0.59375 0 0  0.609375 0 0  0.625 0 0  0.640625 0 0  0.65625 0 0  0.671875 0 0  0.6875 0 0  0.703125 0 0  0.71875 0 0  0.734375 0 0  0.75 0 0  0.765625 0 0  0.78125 0 0  0.796875 0 0  0.8125 0 0  0.828125 0 0  0.84375 0 0  0.859375 0 0  0.875 0 0  0.890625 0 0  0.90625 0 0  0.921875 0 0  0.9375 0 0  0.953125 0 0  0.96875 0 0  0.984375 0 0  1 0 0  0 0.015625 0  0.015625 0.015625 0  0.03125 0.015625 0  0.046875 0.015625 0  0.0625 0.015625 0  0.078125 0.015625 0  0.09375 0.015625 0  0.109375 0.015625 0  0.125 0.015625 0  0.140625 0.015625 0  0.15625 0.015625 0  0.171875 0.015625 0  0.1875 0.015625 0  0.203125 0.015625 0  0.21875 0.015625 0  0.234375 0.015625 0  0.25 0.015625 0  0.265625 0.015625 0  0.28125 0.015625 0  0.296875 0.015625 0  0.3125 0.015625 0  0.328125 0.015625 0  0.34375 0.015625 0  0.359375 0.015625 0  0.375 0.015625 0  0.390625 0.015625 0  0.40625 0.015625 0  0.421875 0.015625 0  0.4375 0.015625 0  0.453125 0.015625 0  0.46875 0.015625 0  0.484375 0.015625 0  0.5 0.015625 0  0.515625 0.015625 0  0.53125 0.015625 0  0.546875 0.015625 0  0.5625 0.015625 0  0.578125 0.015625 0  0.59375 0.015625 0  0.609375 0.015625 0  0.625 0.015625 0  0.640625 0.015625 0  0.65625 0.015625 0  0.671875 0.015625 0  0.6875 0.015625 0  0.703125 0.015625 0  0.71875 0.015625 0  0.734375 0.015625 0  0.75 0.015625 0  0.765625 0.015625 0  0.78125 0.015625 0  0.796875 0.015625 0  0.8125 0.015625 0  0.828125 0.015625 0  0.84375 0.015625 0  0.859375 0.015625 0  0.875 0.015625 0  0.890625 0.015625 0  0.90625 0.015625 0  0.921875 0.015625 0  0.9375 0.015625 0  0.953125 0.015625 0  0.96875 0.015625 0  0.984375 0.015625 0  1 0.015625 0  0 0.03125 0  0.015625 0.03125 0  0.03125 0.03125 0  0.046875 0.03125 0  0.0625 0.03125 0  0.078125 0.03125 0  0.09375 0.03125 0  0.109375 0.03125 0  0.125 0.03125 0  0.140625 0.03125 0  0.15625 0.03125 0  0.171875 0.03125 0  0.1875 0.03125 0  0.203125 0.03125 0  0.21875 0.03125 0  0.234375 0.03125 0  0.25 0.03125 0  0.265625 0.03125 0  0.28125 0.03125 0  0.296875 0.03125 0  0.3125 0.03125 0  0.328125 0.03125 0  0.34375 0.03125 0  0.359375 0.03125 0  0.375 0.03125 0  0.390625 0.03125 0  0.40625 0.03125 0  0.421875 0.03125 0  0.4375 0.03125 0  0.453125 0.03125 0  0.46875 0.03125 0  0.484375 0.03125 0  0.5 0.03125 0  0.515625 0.03125 0  0.53125 0.03125 0  0.546875 0.03125 0  0.5625 0.03125 0  0.578125 0.03125 0  0.59375 0.03125 0  0.609375 0.03125 0  0.625 0.03125 0  0.640625 0.03125 0  0.65625 0.03125 0  0.671875 0.03125 0  0.6875 0.03125 0  0.703125 0.03125 0  0.71875 0.03125 0  0.734375 0.03125 0  0.75 0.03125 0  0.765625 0.03125 0  0.78125 0.03125 0  0.796875 0.03125 0  0.8125 0.03125 0  0.828125 0.03125 0  0.84375 0.03125 0  0.859375 0.03125 0  0.875 0.03125 0  0.890625 0.03125 0  0.90625 0.03125 0  0.921875 0.03125 0  0.9375 0.03125 0  0.953125 0.03125 0  0.96875 0.03125 0  0.984375 0.03125 0  1 0.03125 0  0 0.046875 0  0.015625 0.046875 0  0.03125 0.046875 0  0.046875 0.046875 0  0.0625 0.046875 0  0.078125 0.046875 0  0.09375 0.046875 0  0.109375 0.046875 0  0.125 0.046875 0  0.140625 0.046875 0  0.15625 0.046875 0  0.171875 0.046875 0  0.1875 0.046875 0  0.203125 0.046875 0  0.21875 0.046875 0  0.234375 0.046875 0  0.25 0.046875 0  0.265625 0.046875 0  0.28125 0.046875 0  0.296875 0.046875 0  0.3125 0.046875 0  0.328125 0.046875 0  0.34375 0.046875 0  0.359375 0.046875 0  0.375 0.046875 0  0.390625 0.046875 0  0.40625 0.046875 0  0.421875 0.046875 0  0.4375 0.046875 0  0.453125 0.046875 0  0.46875 0.046875 0  0.484375 0.046875 0  0.5 0.046875 0  0.515625 0.046875 0  0.53125 0.046875 0  0.546875 0.046875 0  0.5625 0.046875 0  0.578125 0.046875 0  0.59375 0.046875 0  0.609375 0.046875 0  0.625 0.046875 0  0.640625 0.046875 0  0.65625 0.046875 0  0.671875 0.046875 0  0.6875 0.046875 0  0.703125 0.046875 0  0.71875 0.046875 0  0.734375 0.046875 0  0.75 0.046875 0  0.765625 0.046875 0  0.78125 0.046875 0  0.796875 0.046875 0  0.8125 0.046875 0  0.828125 0.046875 0  0.84375 0.046875 0  0.859375 0.046875 0  0.875 0.046875 0  0.890625 0.046875 0  0.90625 0.046875 0  0.921875 0.046875 0  0.9375 0.046875 0  0.953125 0.046875 0  0.96875 0.046875 0  0.984375 0.046875 0  1 0.046875 0  0 0.0625 0  0.015625 0.0625 0  0.03125 0.0625 0  0.046875 0.0625 0  0.0625 0.0625 0  0.078125 0.0625 0  0.09375 0.0625 0  0.109375 0.0625 0  0.125 0.0625 0  0.140625 0.0625 0  0.15625 0.0625 0  0.171875 0.0625 0  0.1875 0.0625 0  0.203125 0.0625 0  0.21875 0.0625 0  0.234375 0.0625 0  0.25 0.0625 0  0.265625 0.0625 0  0.28125 0.0625 0  0.296875 0.0625 0  0.3125 0.0625 0  0.328125 0.0625 0  0.34375 0.0625 0  0.359375 0.0625 0  0.375 0.0625 0  0.390625 0.0625 0  0.40625 0.0625 0  0.421875 0.0625 0  0.4375 0.0625 0  0.453125 0.0625 0  0.46875 0.0625 0  0.484375 0.0625 0  0.5 0.0625 0  0.515625 0.0625 0  0.53125 0.0625 0  0.546875 0.0625 0  0.5625 0.0625 0  0.578125 0.0625 0  0.59375 0.0625 0  0.609375 0.0625 0  0.625 0.0625 0  0.640625 0.0625 0  0.65625 0.0625 0  0.671875 0.0625 0  0.6875 0.0625 0  0.703125 0.0625 0  0.71875 0.0625 0  0.734375 0.0625 0  0.75 0.0625 0  0.765625 0.0625 0  0.78125 0.0625 0  0.796875 0.0625 0  0.8125 0.0625 0  0.828125 0.0625 0  0.84375 0.0625 0  0.859375 0.0625 0  0.875 0.0625 0  0.890625 0.0625 0  0.90625 0.0625 0  0.921875 0.0625 0  0.9375 0.0625 0  0.953125 0.0625 0  0.96875 0.0625 0  0.984375 0.0625 0  1 0.0625 0  0 0.078125 0  0.015625 0.078125 0  0.03125 0.078125 0  0.046875 0.078125 0  0.0625 0.078125 0  0.078125 0.078125 0  0.09375 0.078125 0  0.109375 0.078125 0  0.125 0.078125 0  0.140625 0.078125 0  0.15625 0.078125 0  0.171875 0.078125 0  0.1875 0.078125 0  0.203125 0.078125 0  0.21875 0.078125 0  0.234375 0.078125 0  0.25 0.078125 0  0.265625 0.078125 0  0.28125 0.078125 0  0.296875 0.078125 0  0.3125 0.078125 0  0.328125 0.078125 0  0.34375 0.078125 0  0.359375 0.078125 0  0.375 0.078125 0  0.390625 0.078125 0  0.40625 0.078125 0  0.421875 0.078125 0  0.4375 0.078125 0  0.453125 0.078125 0  0.46875 0.078125 0  0.484375 0.078125 0  0.5 0.078125 0  0.515625 0.078125 0  0.53125 0.078125 0  0.546875 0.078125 0  0.5625 0.078125 0  0.578125 0.078125 0  0.59375 0.078125 0  0.609375 0.078125 0  0.625 0.078125 0  0.640625 0.078125 0  0.65625 0.078125 0  0.671875 0.078125 0  0.6875 0.078125 0  0.703125 0.078125 0  0.71875 0.078125 0  0.734375 0.078125 0  0.75 0.078125 0  0.765625 0.078125 0  0.78125 0.078125 0  0.796875 0.078125 0  0.8125 0.078125 0  0.828125 0.078125 0  0.84375 0.078125 0  0.859375 0.078125 0  0.875 0.078125 0  0.890625 0.078125 0  0.90625 0.078125 0  0.921875 0.078125 0  0.9375 0.078125 0  0.953125 0.078125 0  0.96875 0.078125 0  0.984375 0.078125 0  1 0.078125 0  0 0.09375 0  0.015625 0.09375 0  0.03125 0.09375 0  0.046875 0.09375 0  0.0625 0.09375 0  0.078125 0.09375 0  0.09375 0.09375 0  0.109375 0.09375 0  0.125 0.09375 0  0.140625 0.09375 0  0.15625 0.09375 0  0.171875 0.09375 0  0.1875 0.09375 0  0.203125 0.09375 0  0.21875 0.09375 0  0.234375 0.09375 0  0.25 0.09375 0  0.265625 0.09375 0  0.28125 0.09375 0  0.296875 0.09375 0  0.3125 0.09375 0  0.328125 0.09375 0  0.34375 0.09375 0  0.359375 0.09375 0  0.375 0.09375 0  0.390625 0.09375 0  0.40625 0.09375 0  0.421875 0.09375 0  0.4375 0.09375 0  0.453125 0.09375 0  0.46875 0.09375 0  0.484375 0.09375 0  0.5 0.09375 0  0.515625 0.09375 0  0.53125 0.09375 0  0.546875 0.09375 0  0.5625 0.09375 0  0.578125 0.09375 0  0.59375 0.09375 0  0.609375 0.09375 0  0.625 0.09375 0  0.640625 0.09375 0  0.65625 0.09375 0  0.671875 0.09375 0  0.6875 0.09375 0  0.703125 0.09375 0  0.71875 0.09375 0  0.734375 0.09375 0  0.75 0.09375 0  0.765625 0.09375 0  0.78125 0.09375 0  0.796875 0.09375 0  0.8125 0.09375 0  0.828125 0.09375 0  0.84375 0.09375 0  0.859375 0.09375 0  0.875 0.09375 0  0.890625 0.09375 0  0.90625 0.09375 0  0.921875 0.09375 0  0.9375 0.09375 0  0.953125 0.09375 0  0.96875 0.09375 0  0.984375 0.09375 0  1 0.09375 0  0 0.109375 0  0.015625 0.109375 0  0.03125 0.109375 0  0.046875 0.109375 0  0.0625 0.109375 0  0.078125 0.109375 0  0.09375 0.109375 0  0.109375 0.109375 0  0.125 0.109375 0  0.140625 0.109375 0  0.15625 0.109375 0  0.171875 0.109375 0  0.1875 0.109375 0  0.203125 0.109375 0  0.21875 0.109375 0  0.234375 0.109375 0  0.25 0.109375 0  0.265625 0.109375 0  0.28125 0.109375 0  0.296875 0.109375 0  0.3125 0.109375 0  0.328125 0.109375 0  0.34375 0.109375 0  0.359375 0.109375 0  0.375 0.109375 0  0.390625 0.109375 0  0.40625 0.109375 0  0.421875 0.109375 0  0.4375 0.109375 0  0.453125 0.109375 0  0.46875 0.109375 0  0.484375 0.109375 0  0.5 0.109375 0  0.515625 0.109375 0  0.53125 0.109375 0  0.546875 0.109375 0  0.5625 0.109375 0  0.578125 0.109375 0  0.59375 0.109375 0  0.609375 0.109375 0  0.625 0.109375 0  0.640625 0.109375 0  0.65625 0.109375 0  0.671875 0.109375 0  0.6875 0.109375 0  0.703125 0.109375 0  0.71875 0.109375 0  0.734375 0.109375 0  0.75 0.109375 0  0.765625 0.109375 0  0.78125 0.109375 0  0.796875 0.109375 0  0.8125 0.109375 0  0.828125 0.109375 0  0.84375 0.109375 0  0.859375 0.109375 0  0.875 0.109375 0  0.890625 0.109375 0  0.90625 0.109375 0  0.921875 0.109375 0  0.9375 0.109375 0  0.953125 0.109375 0  0.96875 0.109375 0  0.984375 0.109375 0  1 0.109375 0  0 0.125 0  0.015625 0.125 0  0.03125 0.125 0  0.046875 0.125 0  0.0625 0.125 0  0.078125 0.125 0  0.09375 0.125 0  0.109375 0.125 0  0.125 0.12
[...]
<PointData  Scalars="f_10-0"> 
<DataArray  type="Float64"  Name="f_10-0"  format="ascii">-3.9609602283240469e-01  -3.9722736232517941e-01  -3.9965104234325660e-01  -4.0269505601073008e-01  -4.0601700903930271e-01  -4.0936430182013522e-01  -4.1253489089625772e-01  -4.1535867518504366e-01  -4.1768839959147591e-01  -4.1939455569565498e-01  -4.2036233863748579e-01  -4.2048974790443761e-01  -4.1968636603769260e-01  -4.1787255521528299e-01  -4.1497891698735373e-01  -4.1094591812363346e-01  -4.0572361904068299e-01  -3.9927146173940919e-01  -3.9155808726015867e-01  -3.8256116138859547e-01  -3.7226719342320475e-01  -3.6067133723463307e-01  -3.4777716719879842e-01  -3.3359642422682212e-01  -3.1814872926032378e-01  -3.0146126337608420e-01  -2.8356841511793252e-01  -2.6451139687807340e-01  -2.4433783309556004e-01  -2.2310132372652644e-01  -2.0086098686789955e-01  -1.7768098458768022e-01  -1.5363003594470775e-01  -1.2878092089600204e-01  -1.0320997833024542e-01  -7.6996600882659499e-02  -5.0222728537542873e-02  -2.2972342370035426e-02  4.6690408256299890e-03  3.2614872781217406e-02  6.0778077009476267e-02  8.9071551435152010e-02  1.1740867085100026e-01  1.4570378960070932e-01  1.7387274474456074e-01  2.0183335976071773e-01  2.2950594862582921e-01  2.5681381996026514e-01  2.8368378087944013e-01  3.1004664033632762e-01  3.3583771216124242e-01  3.6099731882414393e-01  3.8547129834049820e-01  4.0921151899814889e-01  4.3217641017969316e-01  4.5433152334606058e-01  4.7565014682702716e-01  4.9611401457938514e-01  5.1571417916416484e-01  5.3445217788156729e-01  5.5234174791407376e-01  5.6941163844128340e-01  5.8571108340893741e-01  6.0132108385237992e-01  6.1642254465827329e-01  -3.9480319318441781e-01  -3.9532840499937777e-01  -3.9677146070866176e-01  -3.9877601827636083e-01  -4.0104190128150452e-01  -4.0334025317411082e-01  -4.0548342134896342e-01  -4.0731204942618454e-01  -4.0868768539196232e-01  -4.0948842837341259e-01  -4.0960622722747858e-01  -4.0894514851298025e-01  -4.0742023804346061e-01  -4.0495675713728663e-01  -4.0148965905228934e-01  -3.9696321920891348e-01  -3.9133076159690539e-01  -3.8455444175647990e-01  -3.7660505844230852e-01  -3.6746187402061847e-01  -3.5711242925690628e-01  -3.4555234227907911e-01  -3.3278508466628703e-01  -3.1882173013374965e-01  -3.0368067334984894e-01  -2.8738731814465612e-01  -2.6997373580772899e-01  -2.5147829535266314e-01  -2.3194526855186900e-01  -2.1142441321343308e-01  -1.8997053857823651e-01  -1.6764305686149344e-01  -1.4450552486156379e-01  -1.2062517923715839e-01  -9.6072468552975313e-02  -7.0920584566454573e-02  -4.5244994535596599e-02  -1.9122975632702703e-02  7.3668480895486416e-03  3.4144966265951808e-02  6.1131440799126059e-02  8.8246363165620179e-02  1.1541031123897032e-01  1.4254480636005940e-01  1.6957277121795247e-01  1.9641898887454556e-01  2.2301056302554353e-01  2.4927737939579653e-01  2.7515256808135602e-01  3.0057296674355882e-01  3.2547958491534690e-01  3.4981807040608309e-01  3.7353918004553016e-01  3.9659925903537618e-01  4.1896073638258152e-01  4.4059264897471168e-01  4.6147121509344430e-01  4.8158049195600233e-01  5.0091317601470842e-01  5.1947164951534408e-01  5.3726946409253584e-01  5.5433365231820197e-01  5.7070856777802148e-01  5.8646456860051555e-01  6.0169382031015750e-01  -3.9188204399727039e-01  -3.9219163888489905e-01  -3.9305180949239504e-01  -3.9429768711112589e-01  -3.9572951399908263e-01  -3.9716270459858999e-01  -3.9843561619069456e-01  -3.9940621329020864e-01  -3.9994882731862585e-01  -3.9995166808394278e-01  -3.9931505891261704e-01  -3.9795020564333777e-01  -3.9577833975886878e-01  -3.9273011838582672e-01  -3.8874519815376180e-01  -3.8377192417610029e-01  -3.7776709214525023e-01  -3.7069575309362696e-01  -3.6253103849469248e-01  -3.5325398923200585e-01  -3.4285337631886542e-01  -3.3132550460850685e-01  -3.1867399342054220e-01  -3.0490953023084472e-01  -2.9004959545621356e-01  -2.7411815798262262e-01  -2.5714534246831455e-01  -2.3916707060580086e-01  -2.2022467943963583e-01  -2.0036452049296041e-01  -1.7963754384066985e-01  -1.5809887137519588e-01  -1.3580736335146279e-01  -1.1282518189725776e-01  -8.9217354578521035e-02  -6.5051340375470543e-02  -4.0396599624517610e-02  -1.5324168685091337e-02  1.0093760632374002e-02  3.5784257434729135e-02  6.1674064893693849e-02  8.7690011394642373e-02  1.1375942096321667e-01  1.3981052413868170e-01  1.6577287023027376e-01  1.9157774158381202e-01  2.1715857015588605e-01  2.4245135640037777e-01  2.6739509027647979e-01  2.9193217414975026e-01  3.1600884754385861e-01  3.3957561418796617e-01  3.6258767269383491e-01  3.8500535363016275e-01  4.0679456795102337e-01  4.2792727500143607e-01  4.4838198314448457e-01  4.6814430308959731e-01  4.8720758393145164e-01  5.0557367421063726e-01  5.2325385913197020e-01  5.4026997954980738e-01  5.5665554445381416e-01  5.7245365782520152e-01  5.8770291274387876e-01  -3.8797147211209365e-01  -3.8814446634333821e-01  -3.8862759401566926e-01  -3.8932453937495515e-01  -3.9010599351800157e-01  -3.9083434844031539e-01  -3.9137792262725785e-01  -3.9161535042766682e-01  -3.9143616742794740e-01  -3.9074039001799726e-01  -3.8943789398228812e-01  -3.8744784359164974e-01  -3.8469822949618637e-01  -3.8112551203057743e-01  -3.7667434878962874e-01  -3.7129738273523605e-01  -3.6495506934535638e-01  -3.5761552476620090e-01  -3.4925438034785339e-01  -3.3985463198397264e-01  -3.2940647530492495e-01  -3.1790712005421928e-01  -3.0536057898879349e-01  -2.9177742844801141e-01  -2.7717453937351111e-01  -2.6157477904666887e-01  -2.4500668513458934e-01  -2.2750411477431950e-01  -2.0910587234314781e-01  -1.8985532022260043e-01  -1.6979997723327417e-01  -1.4899110947896368e-01  -1.2748331809403468e-01  -1.0533412786400534e-01  -8.2603579936472202e-02  -5.9353830929173255e-02  -3.5648759759236613e-02  -1.1553582552122826e-02  1.2865524875662063e-02  3.7541798160483288e-02  6.2408250840443727e-02  8.7398038028348904e-02  1.1244481923751978e-01  1.3748312209673738e-01  1.6244870834316161e-01  1.8727894303792869e-01  2.1191316747110941e-01  2.3629307577245040e-01  2.6036309487836862e-01  2.8407076727336256e-01  3.0736713586713160e-01  3.3020713052190520e-01  3.5254995613459372e-01  3.7435948281870624e-01  3.9560463960082715e-01  4.1625981403223516e-01  4.3630526085139387e-01  4.5572752226674051e-01  4.7451985762091975e-01  4.9268266296992247e-01  5.1022380661703470e-01  5.2715864999997530e-01  5.4350895822928225e-01  5.5929898755427998e-01  5.7454856915763142e-01  -3.8336920331221169e-01  -3.8344782645251763e-01  -3.8366147625482111e-01  -3.8394864198892553e-01  -3.8422093240215410e-01  -3.8437691402098562e-01  -3.8431252397613092e-01  -3.8392704391771315e-01  -3.8312582257824890e-01  -3.8182135780261622e-01  -3.7993365823650516e-01  -3.7739030407859275e-01  -3.7412639363919931e-01  -3.7008445465807344e-01  -3.6521435041953293e-01  -3.5947318867961792e-01  -3.5282523182518294e-01  -3.4524180288374090e-01  -3.3670118092325091e-01  -3.2718847958708414e-01  -3.1669550332875940e-01  -3.0522057702992078e-01  -2.9276834595621376e-01  -2.7934954435454323e-01  -2.6498073237321845e-01  -2.4968400234812430e-01  -2.3348665679068556e-01  -2.1642086157491131e-01  -1.9852327878302534e-01  -1.7983468436478242e-01  -1.6039957613758621e-01  -1.4026577766622658e-01  -1.1948404320448720e-01  -9.8107668182005961e-02  -7.6192108739028819e-02  -5.3794612639107287e-02  -3.0973862635310163e-02  -7.7896321459542056e-03  1.5697547979536937e-02  3.9426713666607563e-02  6.3336785406891041e-02  8.7366882485994793e-02  1.1145663643459983e-01  1.3554650616548281e-01  1.5957809673819073e-01  1.8349448305025076e-01  2.0724053906508944e-01  2.3076327252133283e-01  2.5401216448161201e-01  2.7693951260947974e-01  2.9950077672767605e-01  3.2165492500135667e-01  3.4336477896236367e-01  3.6459735544381960e-01  3.8532420311862692e-01  4.0552173030165312e-01  4.2517151808962278e-01  4.4426060687194202e-01  4.6278173062901917e-01  4.8073344315380490e-01  4.9812001465416750e-01  5.1495083547386977e-01  5.3123886810732379e-01  5.4699780909236162e-01  5.6223824704957404e-01  -3.7827591989399167e-01  -3.7828449133771985e-01  -3.7829532212769723e-01  -3.7826626218005016e-01  -3.7813434983017791e-01  -3.7782374367511645e-01  -3.7725283154652756e-01  -3.7633937106898885e-01  -3.7500369572694692e-01  -3.7317053848999199e-01  -3.7077003058558572e-01  -3.6773824258810867e-01  -3.6401747676477425e-01  -3.5955642376547164e-01  -3.5431024269841022e-01  -3.4824059406847008e-01  -3.4131563908539109e-01  -3.3351001034590938e-01  -3.2480475451244251e-01  -3.1518724554353300e-01  -3.0465106630222277e-01  -2.9319585644817026e-01  -2.8082712511417879e-01  -2.6755602780513771e-01  -2.5339910812035760e-01  -2.3837800619179997e-01  -2.2251913705431484e-01  -2.0585334341656622e-01  -1.8841552837426809e-01  -1.7024427439445072e-01  -1.5138145530898722e-01  -1.3187184802396965e-01  -1.1176275015571435e-01  -9.1103608869618935e-02  -6.9945664899890389e-02  -4.8341614184522687e-02  -2.6345287908304021e-02  -4.0113501649045044e-03  1.8604988925419674e-02  4.1448247855294412e-02  6.4462939988978701e-02  8.7593835526569810e-02  1.1078622308153031e-01  1.3398617426135001e-01  1.5714081387265713e-01  1.8019859745398351e-01  2.0310959686959992e-01  2.2582579375932957e-01  2.4830137979144379e-01  2.7049306193866990e-01  2.9236037038730933e-01  3.1386596615297130e-01  3.3497594491770893e-01  3.5566013284800918e-01  3.7589236889416600e-01  3.9565076576480868e-01  4.1491793743696193e-01  4.3368117293736774e-01  4.5193252110550269e-01  4.6966872419042788e-01  4.8689089359564836e-01  5.0360376742136137e-01  5.1981439137404495e-01  5.3553021193111139e-01  5.5075690555824452e-01  -3.7283734806398944e-01  -3.7279175298663608e-01  -3.7264441539153875e-01  -3.7236504422058009e-01  -3.7190724903488037e-01  -3.7121334496652691e-01  -3.7021913754258473e-01  -3.6885790725539497e-01  -3.6706334029864313e-01  -3.6477151911556921e-01  -3.6192221901091842e-01  -3.5845974200795039e-01  -3.5433345499963231e-01  -3.4949814013055808e-01  -3.4391422340197436e-01  -3.3754792033191139e-01  -3.3037132063245483e-01  -3.2236242362336315e-01  -3.1350513001516822e-01  -3.0378919221704614e-01  -2.9321012351717052e-01  -2.8176906578591376e-01  -2.6947261542814671e-01  -2.5633260794662643e-01  -2.4236586252100481e-01  -2.2759388932400049e-01  -2.1204256375314887e-01  -1.9574177320678907e-01  -1.7872504331943750e-01  -1.6102915153752481e-01  -1.4269373642216251e-01  -1.2376091100956506e-01  -1.0427488789700802e-01  -8.4281622477065901e-02  -6.3828479011730416e-02  -4.2963922180413068e-02  -2.1737234554565533e-02  -1.9825836499769536e-04  2.1602841860888643e-02  4.3615800545379016e-02  6.5790461718199272e-02  8.8076984805299144e-02  1.1042605091787754e-01  1.3278907421382674e-01  1.5511842178947172e-01  1.7736764426888418e-01  1.9949171792284351e-01  2.2144729787553027e-01  2.4319298081346483e-01  2.6468957462461001e-01  2.8590037154704795e-01  3.0679142062833503e-01  3.2733179446359123e-01  3.4749384409183137e-01  3.6725343427367635e-01  3.8659014866533625e-01  4.0548744990332847e-01  4.2393277225004522e-01  4.4191751292224102e-01  4.5943687183795090e-01  4.7648947170605349e-01  4.9307668647975533e-01  5.0920164416965474e-01  5.2486797452570977e-01  5.4007852179033355e-01  -3.6716503002494205e-01  -3.6707633986343585e-01  -3.6680249097929174e-01  -3.6632095324464037e-01  -3.6559664482060739e-01  -3.6458498325686872e-01  -3.6323515407667439e-01  -3.6149309879759395e-01  -3.5930396374357471e-01  -3.5661396375198273e-01  -3.5337173825596002e-01  -3.4952931653697344e-01  -3.4504280032410667e-01  -3.3987284684576158e-01  -3.3398501042838058e-01  -3.2734998099786800e-01  -3.1994374369568829e-01  -3.1174767418108940e-01  -3.0274857783993847e-01  -2.9293867709672583e-01  -2.8231554865540576e-01  -2.7088201133243334e-01  -2.5864596490341185e-01  -2.4562018086729512e-01  -2.3182204708552240e-01  -2.1727326973003214e-01  -2.0199953770857185e-01  -1.8603015653544419e-01  -1.6939766026433103e-01  -1.5213741137310277e-01  -1.3428719918306881e-01  -1.1588684735095285e-01  -9.6977840113694841e-02  -7.7602975315728101e-02  -5.7806049932180296e-02  -3.7631581038745886e-02  -1.7124562252975421e-02  3.6697471113614675e-03  2.4706005291327961e-02  4.5938950545900789e-02  6.7323550604274404e-02  8.8815146971165451e-02  1.1036960136175458e-01  1.3194345034353100e-01  1.5349407266861112e-01  1.7497987198884288e-01  1.9636047583882665e-01  2.1759695008904939e-01  2.3865202659850893e-01  2.5949034056052483e-01  2.8007867300656447e-01  3.0038619302636244e-01  3.2038469334107778e-01  3.4004881173578777e-01  3.5935622925817717e-01  3.7828783368651897e-01  3.9682783316600512e-01  4.1496379975868425e-01  4.3268661601189767e-01  4.4999029098303817e-01  4.6687161013757555e-01  4.8332959508714490e-01  4.9936478450231708e-01  5.1497840822805396e-01  5.3017159486240095e-01  -3.6134715304652570e-01  -3.6122344358988973e-01  -3.6084641862843037e-01  -3.6019889374681585e-01  -3.5925380304047089e-01  -3.5797622109208682e-01  -3.5632564577139786e-01  -3.5425822868931484e-01  -3.5172874860808045e-01  -3.4869224052886710e-01  -3.4510528011315561e-01  -3.4092696892763930e-01  -3.3611967958753436e-01  -3.3064961557566719e-01  -3.2448722947275166e-01  -3.1760753160455102e-01  -3.0999031109232666e-01  -3.0162028353676379e-01  -2.9248717390505147e-01  -2.8258573927194863e-01  -2.7191573355706644e-01  -2.6048181505129464e-01  -2.4829339715895110e-01  -2.3536444326764283e-01  -2.2171320787373436e-01  -2.0736192789413677e-01  -1.9233647029580858e-01  -1.7666594452881629e-01  -1.6038229046525507e-01  -1.4351985431010900e-01  -1.2611496596308144e-01  -1.0820553133810122e-01  -8.9830652064168681e-02  -7.1030282813571516e-02  -5.1844933399632295e-02  -3.2315419060604589e-02  -1.2482658398013368e-02  7.6124853003445179e-03  2.7929326750278396e-02  4.8427454981866735e-02  6.9066813999321422e-02  8.9807778526769660e-02  1.1061123458914762e-01  1.3143867291541073e-01  1.5225230089425515e-01  1.7301517634831259e-01  1.9369136397454964e-01  2.1424611311495184e-01  2.3464605368168001e-01  2.5485940559343834e-01  2.7485619594178923e-01  2.9460847719640942e-01  3.1409053893157185e-01  3.3327910463587174e-01  3.5215350395939515e-01  3.7069580907162386e-01  3.8889092153570320e-01  4.0672659335995143e-01  4.2419336331538765e-01  4.4128438890950872e-01  4.5799515873341162e-01  4.7432308332573053e-01  4.9026698773716909e-01  5.0582656262768455e-01  5.2100186180540631e-01  -3.5545508671849002e-01  -3.5530243726382482e-01  -3.5483992602302783e-01  -3.5405419820683220e-01  -3.5292404904466546e-01  -3.5142181516512888e-01  -3.4951500827247206e-01  -3.4716799238194124e-01  -3.4434355495963304e-01  -3.4100428581553671e-01  -3.3711373343538154e-01  -3.3263734588259586e-01  -3.2754322218993381e-01  -3.2180270543961864e-01  -3.1539084643000270e-01  -3.0828676134692717e-01  -3.0047390073987690e-01  -2.9194024154068132e-01  -2.8267840929863003e-01  -2.7268573434017013e-01  -2.6196424317339279e-01  -2.5052058510643349e-01  -2.3836589370229694e-01  -2.2551558331737173e-01  -2.1198908250573287e-01  -1.9780950839461081e-01  -1.8300328904006730e-01  -1.6759974395074917e-01  -1.5163063603097057e-01  -1.3512971070289972e-01  -1.1813223949190077e-01  -1.0067458555095644e-01  -8.2793807262236910e-02  -6.4527313191035204e-02  -4.5912577505146726e-02  -2.6986919936486230e-02  -7.7873490153949065e-03  1.1649537734011700e-02  3.1287607121492984e-02  5.1091210499960273e-02  7.1025185561391646e-02  9.1054854230772406e-02  1.1114602962315598e-01  1.3126504246405005e-01  1.5137879419974601e-01  1.7145484065426284e-01  1.9146150687661467e-01  2.1136803101999990e-01  2.3114473284121373e-01  2.5076320073092156e-01  2.7019649001889073e-01  2.8941932451443902e-01  3.0840829267782655e-01  3.2714202930277936e-01  3.4560137297583082e-01  3.6376948877888166e-01  3.8163194476011131e-01  3.9917672990005060e-01  4.1639420133492289e-01  4.3327695070414979e-01  4.4981958534409588e-01  4.6601843112217134e-01  4.8187117992851974e-01  4.9737652318541625e-01  5.1253382694334304e-01  -3.4954764276889233e-01  -3.4937073502785843e-01  -3.4883642617942751e-01  -3.4793418952193045e-01  -3.4664721366870255e-01  -3.4495339253993818e-01  -3.4282652332639579e-01  -3.4023758415262145e-01  -3.3715598493452054e-01  -3.3355071901855038e-01  -3.2939137761014176e-01  -3.2464901604266405e-01  -3.1929687805497370e-01  -3.1331099253343353e-01  -3.0667065925268172e-01  -2.9935883862169427e-01  -2.9136245723416421e-01  -2.8267263733350217e-01  -2.7328485480137782e-01  -2.6319902732419381e-01  -2.5241953219458768e-01  -2.4095515191537481e-01  -2.2881894551432544e-01  -2.1602804433857464e-01  -2.0260337310054075e-01  -1.8856930001014069e-01  -1.7395322372636449e-01  -1.5878510921330141e-01  -1.4309698886818600e-01  -1.2692244888951076e-01  -1.1029612315604946e-01  -9.3253217380095260e-02  -7.5829084676140510e-02  -5.8058869933211001e-02  -3.9977234798296457e-02  -2.1618168263933559e-02  -3.0148806027331049e-03  1.5800228423192429e-02  3.4795541730150724e-02  5.3940155858749131e-02  7.3203790706792241e-02  9.2556697536011243e-02  1.1196958238076465e-01  1.3141355829072796e-01  1.5086013540337093e-01  1.7028125325365034e-01  1.8964935547871570e-01  2.0893750350382642e-01  2.2811952307220476e-01  2.4717017562109281e-01  2.6606534540443127e-01  2.8478223274129999e-01  3.0329954362326444e-01  3.2159766595232037e-01  3.3965882276549697e-01  3.5746719288418061e-01  3.7500898959467527e-01  3.9227248850345625e-01  4.0924799713729187e-01  4.2592776191053705e-01  4.4230581351294485e-01  4.5837775990973118e-01  4.7414054628695401e-01  4.8959221125251479e-01  5.0473167502979599e-01  -3.4367401451895407e-01  -3.4347651510149657e-01  -3.4288116559279425e-01  -3.4187957682980519e-01  -3.4045829513914339e-01  -3.3859952814696742e-01  -3.3628204420159657e-01  -3.3348216099527567e-01  -3.3017474809451341e-01  -3.2633418628778404e-01  -3.2193524746698926e-01  -3.1695387718933637e-01  -3.1136787555954210e-01  -3.0515748021753147e-01  -2.9830585888766520e-01  -2.9079951945555066e-01  -2.8262864411482452e-01  -2.7378735171046709e-01  -2.6427388965892706e-01  -2.5409075421651423e-01  -2.4324473575890701e-01  -2.3174688444123440e-01  -2.1961239141423522e-01  -2.0686038191064418e-01  -1.9351361912145551e-01  -1.7959812182875515e-01  -1.6514270401136838e-01  -1.5017845061182908e-01  -1.3473814964558437e-01  -1.1885570599331248e-01  -1.0256556566591690e-01  -8.5902180320334393e-02  -6.8899539871320289e-02  -5.1590796136791642e-02  -3.4007992978813371e-02  -1.6181909187484713e-02  1.8579894741529736e-03  2.0083501857407291e-02  3.8467566907744458e-02  5.6984088188740761e-02  7.5607734505951110e-02  9.4313742649801913e-02  1.1307774475145321e-01  1.3187563746858266e-01  1.5068350405228656e-01  1.6947759412414196e-01  1.8823436039110664e-01  2.0693054699405894e-01  2.2554332092576601e-01  2.4405043595054948e-01  2.6243041753662588e-01  2.8066275721066103e-01  2.9872810517978032e-01  3.1660845079214256e-01  3.3428728125385992e-01  3.5174970992627741e-01  3.6898256656221412e-01  3.8597444321253821e-01  4.0271569158047082e-01  4.1919837070743449e-01  4.3541614831741859e-01  4.5136416484323111e-01  4.6703887541356004e-01  4.8243789050833857e-01  4.9755983878015131e-01  -3.3787589063890228e-01  -3.3766070821313748e-01  -3.3701287193354340e-01  -3.3592563631398359e-01  -3.3438815130331340e-01  -3.3238600904406151e-01  -3.2990193457087774e-01  -3.2691656383909007e-01  -3.2340925577369906e-01  -3.1935889465909317e-01  -3.1474465164542254e-01  -3.0954668633050286e-01  -3.0374677928015664e-01  -2.9732889315093375e-01  -2.9027966383593617e-01  -2.8258882429835913e-01  -2.7424956316434546e-01  -2.6525881835870280e-01  -2.5561750363967384e-01  -2.4533066331183559e-01  -2.3440754813306278e-01  -2.2286160394671561e-01  -2.1071036432236875e-01  -1.9797523988550261e-01  -1.8468120033846649e-01  -1.7085635047912340e-01  -1.5653140855925346e-01  -1.4173910348580360e-01  -1.2651351571034111e-01  -1.1088939399223